##############################################################################
###      FullProf-generated mCIF output file   (version: May 2019)         ###
##############################################################################
 
# Please notify any error or suggestion to: 
#           Juan Rodriguez-Carvajal (jrc@ill.eu)
# Improvements will be progressively added as needed.
 
#      Date: 05/10/2020  Time: 11:11:56.419
 
#=============================================================================
 data_global
#=============================================================================
 
data_
_audit_creation_date  05/10/2020  
_audit_creation_method  "FullProf Suite"
 
_citation_journal_abbrev ?
_citation_journal_volume ?
_citation_page_first     ?
_citation_page_last      ?
_citation_article_id     ?
_citation_year           ?
loop_
_citation_author_name
?

_atomic_positions_source_database_code_ICSD  ?
_atomic_positions_source_other    .  

_Neel_temperature  ?
_magn_diffrn_temperature  ?
_exptl_crystal_magnetic_properties_details
;
;
_active_magnetic_irreps_details
;
;
 
_magnetic_space_group_standard_setting  'no'
_parent_space_group.name_H-M  ""
_parent_space_group.IT_number  139

_space_group_magn.number_BNS 71.536
_space_group_magn.name_BNS   Im'm'm
_parent_space_group.transform_Pp_abc  ''
_parent_space_group.child_transform_Pp_abc  ''
_magnetic_space_group.transform_BNS_Pp_abc  ''
_space_group_magn.number_OG  ?
_space_group_magn.name_OG    ?


_cell_length_a     12.4260
_cell_length_b     4.14200
_cell_length_c     9.62400
_cell_angle_alpha  90.0000
_cell_angle_beta   90.0000
_cell_angle_gamma  90.0000


loop_
    _space_group_symop_magn_operation.id
    _space_group_symop_magn_operation.xyz
   1  x,y,z,+1
   2  x,-y,z,-1
   3  -x,-y,z,+1
   4  -x,y,z,-1
   5  -x,-y,-z,+1
   6  -x,y,-z,-1
   7  x,y,-z,+1
   8  x,-y,-z,-1

loop_
    _space_group_symop_magn_centering.id
    _space_group_symop_magn_centering.xyz
   1  x,y,z,+1
   2  x+1/2,y+1/2,z+1/2,+1

loop_
    _atom_site_label
    _atom_site_type_symbol
    _atom_site_fract_x
    _atom_site_fract_y
    _atom_site_fract_z
    _atom_site_U_iso_or_equiv
    _atom_site_occupancy
    _atom_site_adp_type
 U1_1 U  0.00000  0.00000  0.00000  0.00000  1.00000 Uiso
 U1_2 U  0.33333  0.00000  0.00000  0.00000  1.00000 Uiso
 Rh1_1 Rh  0.50000  0.00000  0.25000  0.00000  0.04000 Uiso
 Rh1_2 Rh  0.16667  0.00000  0.25000  0.00000  0.04000 Uiso
 Ru1_1 Ru  0.50000  0.00000  0.25000  0.00000  0.96000 Uiso
 Ru1_2 Ru  0.16667  0.00000  0.25000  0.00000  0.96000 Uiso
 Si1_1 Si  0.00000  0.00000  0.62900  0.00000  1.00000 Uiso
 Si1_2 Si  0.33333  0.00000  0.62900  0.00000  1.00000 Uiso
 

loop_
    _atom_site_moment.label
    _atom_site_moment.crystalaxis_x
    _atom_site_moment.crystalaxis_y
    _atom_site_moment.crystalaxis_z
 U1_1  0.00000  0.00000 -0.6000
 U1_2  0.00000  0.00000  0.60000

