#  ---------------------------------------------
#  Magnetic CIF file generated by FullProf in P1
#  ---------------------------------------------
# This is a simple mCIF in P1 in the magnetic unit cell
# This is valid only for commensurate structures
# (waiting for a more appropriate tool in the future...)
# MagCIF file for: Fe3O4  CORE
#   Date: 11/09/2020  Time: 15:45:01.056
 
data_
_citation_journal_abbrev ?
_citation_journal_volume ?
_citation_page_first     ?
_citation_page_last      ?
_citation_article_id     ?
_citation_year           ?
loop_
_citation_author_name
?

_atomic_positions_source_database_code_ICSD  ?
_atomic_positions_source_other    .  

_Neel_temperature  ?
_magn_diffrn_temperature  ?
_exptl_crystal_magnetic_properties_details
;
;
 
_magnetic_space_group_standard_setting  'no'
_parent_space_group.name_H-M  "F -1"

_space_group.magn_number_BNS  ?
_space_group.magn_name_BNS    ?
_space_group.magn_number_OG   ?
_space_group.magn_name_OG     ?


_cell_length_a     8.36739
_cell_length_b     8.36739
_cell_length_c     8.36739
_cell_angle_alpha  90.0000
_cell_angle_beta   90.0000
_cell_angle_gamma  90.0000

loop_
_magnetic_propagation_vector_seq_id
_magnetic_propagation_vector_kxkykz
GM  '0,0,0'

loop_
_space_group_symop_magn_operation.id
_space_group_symop_magn_operation.xyz
1   x,y,z,+1

loop_
_atom_site_label
_atom_site_type_symbol
_atom_site_fract_x
_atom_site_fract_y
_atom_site_fract_z
_atom_site_occupancy
A1_1             Fe         0.12500       0.12500       0.12500  1.0000
A1_2             Fe         0.87500       0.87500       0.87500  1.0000
A1_3             Fe         0.62500       0.62500       0.12500  1.0000
A1_4             Fe         0.37500       0.37500       0.87500  1.0000
A1_5             Fe         0.62500       0.12500       0.62500  1.0000
A1_6             Fe         0.37500       0.87500       0.37500  1.0000
A1_7             Fe         0.12500       0.62500       0.62500  1.0000
A1_8             Fe         0.87500       0.37500       0.37500  1.0000
B1_1             Fe         0.50000       0.50000       0.50000  1.0000
B1_2             Fe         0.00000       0.00000       0.50000  1.0000
B1_3             Fe         0.00000       0.50000       0.00000  1.0000
B1_4             Fe         0.50000       0.00000       0.00000  1.0000
B1_5             Fe         0.50000       0.75000       0.75000  1.0000
B1_6             Fe         0.50000       0.25000       0.25000  1.0000
B1_7             Fe         0.00000       0.25000       0.75000  1.0000
B1_8             Fe         0.00000       0.75000       0.25000  1.0000
B1_9             Fe         0.75000       0.50000       0.75000  1.0000
B1_10            Fe         0.25000       0.50000       0.25000  1.0000
B1_11            Fe         0.25000       0.00000       0.75000  1.0000
B1_12            Fe         0.75000       0.00000       0.25000  1.0000
B1_13            Fe         0.75000       0.75000       0.50000  1.0000
B1_14            Fe         0.25000       0.25000       0.50000  1.0000
B1_15            Fe         0.25000       0.75000       0.00000  1.0000
B1_16            Fe         0.75000       0.25000       0.00000  1.0000
O_1              O          0.25223       0.25223       0.25223  1.0000
O_2              O          0.74777       0.74777       0.74777  1.0000
O_3              O          0.75223       0.75223       0.25223  1.0000
O_4              O          0.24777       0.24777       0.74777  1.0000
O_5              O          0.75223       0.25223       0.75223  1.0000
O_6              O          0.24777       0.74777       0.24777  1.0000
O_7              O          0.25223       0.75223       0.75223  1.0000
O_8              O          0.74777       0.24777       0.24777  1.0000
O_9              O          0.25223       0.99777       0.99777  1.0000
O_10             O          0.74777       0.00223       0.00223  1.0000
O_11             O          0.75223       0.49777       0.99777  1.0000
O_12             O          0.24777       0.50223       0.00223  1.0000
O_13             O          0.75223       0.99777       0.49777  1.0000
O_14             O          0.24777       0.00223       0.50223  1.0000
O_15             O          0.25223       0.49777       0.49777  1.0000
O_16             O          0.74777       0.50223       0.50223  1.0000
O_17             O          0.99777       0.25223       0.99777  1.0000
O_18             O          0.00223       0.74777       0.00223  1.0000
O_19             O          0.49777       0.75223       0.99777  1.0000
O_20             O          0.50223       0.24777       0.00223  1.0000
O_21             O          0.49777       0.25223       0.49777  1.0000
O_22             O          0.50223       0.74777       0.50223  1.0000
O_23             O          0.99777       0.75223       0.49777  1.0000
O_24             O          0.00223       0.24777       0.50223  1.0000
O_25             O          0.99777       0.99777       0.25223  1.0000
O_26             O          0.00223       0.00223       0.74777  1.0000
O_27             O          0.49777       0.49777       0.25223  1.0000
O_28             O          0.50223       0.50223       0.74777  1.0000
O_29             O          0.49777       0.99777       0.75223  1.0000
O_30             O          0.50223       0.00223       0.24777  1.0000
O_31             O          0.99777       0.49777       0.75223  1.0000
O_32             O          0.00223       0.50223       0.24777  1.0000

loop_
_atom_site_moment.label
_atom_site_moment.crystalaxis_x
_atom_site_moment.crystalaxis_y
_atom_site_moment.crystalaxis_z
_atom_site_moment.spherical_modulus
A1_1                0.00000  0.00000  0.00000  0.00000
A1_2                0.00000  0.00000  0.00000  0.00000
A1_3                0.00000  0.00000  0.00000  0.00000
A1_4                0.00000  0.00000  0.00000  0.00000
A1_5                0.00000  0.00000  0.00000  0.00000
A1_6                0.00000  0.00000  0.00000  0.00000
A1_7                0.00000  0.00000  0.00000  0.00000
A1_8                0.00000  0.00000  0.00000  0.00000
B1_1                0.00000  0.00000  0.00000  0.00000
B1_2                0.00000  0.00000  0.00000  0.00000
B1_3                0.00000  0.00000  0.00000  0.00000
B1_4                0.00000  0.00000  0.00000  0.00000
B1_5                0.00000  0.00000  0.00000  0.00000
B1_6                0.00000  0.00000  0.00000  0.00000
B1_7                0.00000  0.00000  0.00000  0.00000
B1_8                0.00000  0.00000  0.00000  0.00000
B1_9                0.00000  0.00000  0.00000  0.00000
B1_10               0.00000  0.00000  0.00000  0.00000
B1_11               0.00000  0.00000  0.00000  0.00000
B1_12               0.00000  0.00000  0.00000  0.00000
B1_13               0.00000  0.00000  0.00000  0.00000
B1_14               0.00000  0.00000  0.00000  0.00000
B1_15               0.00000  0.00000  0.00000  0.00000
B1_16               0.00000  0.00000  0.00000  0.00000
O_1                 0.00000  0.00000  0.00000  0.00000
O_2                 0.00000  0.00000  0.00000  0.00000
O_3                 0.00000  0.00000  0.00000  0.00000
O_4                 0.00000  0.00000  0.00000  0.00000
O_5                 0.00000  0.00000  0.00000  0.00000
O_6                 0.00000  0.00000  0.00000  0.00000
O_7                 0.00000  0.00000  0.00000  0.00000
O_8                 0.00000  0.00000  0.00000  0.00000
O_9                 0.00000  0.00000  0.00000  0.00000
O_10                0.00000  0.00000  0.00000  0.00000
O_11                0.00000  0.00000  0.00000  0.00000
O_12                0.00000  0.00000  0.00000  0.00000
O_13                0.00000  0.00000  0.00000  0.00000
O_14                0.00000  0.00000  0.00000  0.00000
O_15                0.00000  0.00000  0.00000  0.00000
O_16                0.00000  0.00000  0.00000  0.00000
O_17                0.00000  0.00000  0.00000  0.00000
O_18                0.00000  0.00000  0.00000  0.00000
O_19                0.00000  0.00000  0.00000  0.00000
O_20                0.00000  0.00000  0.00000  0.00000
O_21                0.00000  0.00000  0.00000  0.00000
O_22                0.00000  0.00000  0.00000  0.00000
O_23                0.00000  0.00000  0.00000  0.00000
O_24                0.00000  0.00000  0.00000  0.00000
O_25                0.00000  0.00000  0.00000  0.00000
O_26                0.00000  0.00000  0.00000  0.00000
O_27                0.00000  0.00000  0.00000  0.00000
O_28                0.00000  0.00000  0.00000  0.00000
O_29                0.00000  0.00000  0.00000  0.00000
O_30                0.00000  0.00000  0.00000  0.00000
O_31                0.00000  0.00000  0.00000  0.00000
O_32                0.00000  0.00000  0.00000  0.00000

