data_92078
_audit_creation_method 'Created with Diamond (www.crystalimpact.com)'
_audit_creation_date 10-01-27
_audit_update_record 10-01-27
_database_code_ICSD 92078
loop_
_publ_author_name
'Blasco,'
'J.,'
'Ritter,'
'C.,'
'Garcia,'
'J.,'
'de, Teresa'
'J.M.,'
'Perez-Cacho,'
'J.,'
'Ibarra,'
'M.R.,'

_publ_section_title
;
Structural and magnetic study of Tb1-x Cax Mn O3 perovskites
;
_chemical_formula_sum 'Tb0.25 O0.5 Mn0.25'
_chemical_formula_structural 'Tb (Mn O3)'
_chemical_name_systematic
;
Terbium manganate(III)
;
_chemical_name_structure_type
;
GdFeO3
;
_chemical_formula_weight 61.466
_refine_ls_R_factor_all 0.042
_cell_length_a  5.3019(1)
_cell_length_b  5.8557(1)
_cell_length_c  7.4009(1)
_cell_angle_alpha 90.000
_cell_angle_beta 90.000
_cell_angle_gamma 90.000
_cell_formula_units_Z 4
_symmetry_int_tables_number 62
_symmetry_space_group_name_H-M 'P b n m'
_symmetry_space_group_name_Hall '-P_2c_2ab'

loop_
_symmetry_equiv_pos_site_id
_symmetry_equiv_pos_as_xyz
1 x,y,z
2 -x,-y,1/2+z
3 1/2+x,1/2-y,-z
4 1/2-x,1/2+y,1/2-z
5 -x,-y,-z
6 x,y,1/2-z
7 1/2-x,1/2+y,z
8 1/2+x,1/2-y,1/2+

loop_
_atom_type_symbol
_atom_type_oxidation_number
_atom_type_radius_bond
Tb+0 3.000 0.920
O+0 -2.000 1.210
Mn+0 3.000 0.580


loop_
_atom_site_label
_atom_site_type_symbol
_atom_site_fract_x
_atom_site_fract_y
_atom_site_fract_z
_atom_site_occupancy
_atom_site_symmetry_multiplicity
_atom_site_Wyckoff_symbol
_atom_site_attached_hydrogens
_atom_site_calc_flag
_atom_site_thermal_displace_type
_atom_site_u_iso_or_equiv
Tb1 Tb+0  0.9836(1)  0.0810(1)  0.2500  1.000 ? ? ? d Uani ?
O1 O+0  0.1083(8)  0.4694(8)  0.2500  1.000 ? ? ? d Uani  0.01000
O2 O+0  0.7085(7)  0.3267(6)  0.0523(4)  1.000 ? ? ? d Uani  0.00010
Mn1 Mn+0  0.5000  0.0000  0.0000  1.000 ? ? ? d Uani ?


loop_
_atom_site_aniso_label
_atom_site_aniso_U_11
_atom_site_aniso_U_22
_atom_site_aniso_U_33
_atom_site_aniso_U_12
_atom_site_aniso_U_13
_atom_site_aniso_U_23
Tb1  0.39300  0.11090  0.00043  0.20850  0.00000  0.00000
O1  0.00500  0.00500  0.00500  0.00000  0.00000  0.00000
O2  0.00500  0.00500  0.00500  0.00000  0.00000  0.00000
Mn1  0.03140  0.03140  0.03140  0.00000  0.00000  0.00000

loop_
_geom_contact_atom_site_symbol_1
_geom_contact_atom_site_symbol_2
_geom_contact_site_symmetry_1
_geom_contact_site_symmetry_2
_geom_contact_distance
_geom_contact_publ_flag
Tb1 O2

loop_
_geom_bond_atom_site_symbol_1
_geom_bond_atom_site_symbol_2
_geom_bond_site_symmetry_1
_geom_bond_site_symmetry_2
_geom_bond_distance
_geom_bond_publ_flag
Tb1 O1
Tb1 O1
Tb1 O2
Tb1 O2
Tb1 O2
Tb1 O2
