#  ---------------------------------------------
#  Magnetic CIF file generated by FullProf in P1
#  ---------------------------------------------
# This is a simple mCIF in P1 in the magnetic unit cell
# This is valid only for commensurate structures
# (waiting for a more appropriate tool in the future...)
# MagCIF file for: Mn3O4  hausmannite  SHELL
#   Date: 11/09/2020  Time: 12:22:23.912
 
data_
_citation_journal_abbrev ?
_citation_journal_volume ?
_citation_page_first     ?
_citation_page_last      ?
_citation_article_id     ?
_citation_year           ?
loop_
_citation_author_name
?

_atomic_positions_source_database_code_ICSD  ?
_atomic_positions_source_other    .  

_Neel_temperature  ?
_magn_diffrn_temperature  ?
_exptl_crystal_magnetic_properties_details
;
;
 
_magnetic_space_group_standard_setting  'no'
_parent_space_group.name_H-M  "I -1"

_space_group.magn_number_BNS  ?
_space_group.magn_name_BNS    ?
_space_group.magn_number_OG   ?
_space_group.magn_name_OG     ?


_cell_length_a     5.72360
_cell_length_b     5.72360
_cell_length_c     9.47860
_cell_angle_alpha  90.0000
_cell_angle_beta   90.0000
_cell_angle_gamma  90.0000

loop_
_magnetic_propagation_vector_seq_id
_magnetic_propagation_vector_kxkykz
GM  '0,0,0'

loop_
_space_group_symop_magn_operation.id
_space_group_symop_magn_operation.xyz
1   x,y,z,+1

loop_
_atom_site_label
_atom_site_type_symbol
_atom_site_fract_x
_atom_site_fract_y
_atom_site_fract_z
_atom_site_occupancy
MN2+_1           Mn         0.00000       0.75000       0.12500  1.0000
MN2+_2           Mn         0.00000       0.25000       0.87500  1.0000
MN2+_3           Mn         0.50000       0.25000       0.62500  1.0000
MN2+_4           Mn         0.50000       0.75000       0.37500  1.0000
MN3+_1           Mn         0.00000       0.00000       0.50000  1.0000
MN3+_2           Mn         0.50000       0.50000       0.00000  1.0000
MN3+_3           Mn         0.25000       0.75000       0.75000  1.0000
MN3+_4           Mn         0.75000       0.25000       0.25000  1.0000
MN3+_5           Mn         0.50000       0.00000       0.00000  1.0000
MN3+_6           Mn         0.00000       0.50000       0.50000  1.0000
MN3+_7           Mn         0.25000       0.25000       0.25000  1.0000
MN3+_8           Mn         0.75000       0.75000       0.75000  1.0000
O1_1             O          0.00000       0.47230       0.25920  1.0000
O1_2             O          0.00000       0.52770       0.74080  1.0000
O1_3             O          0.50000       0.97230       0.75920  1.0000
O1_4             O          0.50000       0.02770       0.24080  1.0000
O1_5             O          0.77770       0.75000       0.50920  1.0000
O1_6             O          0.22230       0.25000       0.49080  1.0000
O1_7             O          0.27770       0.25000       0.00920  1.0000
O1_8             O          0.72230       0.75000       0.99080  1.0000
O1_9             O          0.50000       0.52770       0.75920  1.0000
O1_10            O          0.50000       0.47230       0.24080  1.0000
O1_11            O          0.00000       0.02770       0.25920  1.0000
O1_12            O          0.00000       0.97230       0.74080  1.0000
O1_13            O          0.72230       0.25000       0.00920  1.0000
O1_14            O          0.27770       0.75000       0.99080  1.0000
O1_15            O          0.22230       0.75000       0.50920  1.0000
O1_16            O          0.77770       0.25000       0.49080  1.0000

loop_
_atom_site_moment.label
_atom_site_moment.crystalaxis_x
_atom_site_moment.crystalaxis_y
_atom_site_moment.crystalaxis_z
_atom_site_moment.spherical_modulus
MN2+_1              0.00000  0.00000  0.00000  0.00000
MN2+_2              0.00000  0.00000  0.00000  0.00000
MN2+_3              0.00000  0.00000  0.00000  0.00000
MN2+_4              0.00000  0.00000  0.00000  0.00000
MN3+_1              0.00000  0.00000  0.00000  0.00000
MN3+_2              0.00000  0.00000  0.00000  0.00000
MN3+_3              0.00000  0.00000  0.00000  0.00000
MN3+_4              0.00000  0.00000  0.00000  0.00000
MN3+_5              0.00000  0.00000  0.00000  0.00000
MN3+_6              0.00000  0.00000  0.00000  0.00000
MN3+_7              0.00000  0.00000  0.00000  0.00000
MN3+_8              0.00000  0.00000  0.00000  0.00000
O1_1                0.00000  0.00000  0.00000  0.00000
O1_2                0.00000  0.00000  0.00000  0.00000
O1_3                0.00000  0.00000  0.00000  0.00000
O1_4                0.00000  0.00000  0.00000  0.00000
O1_5                0.00000  0.00000  0.00000  0.00000
O1_6                0.00000  0.00000  0.00000  0.00000
O1_7                0.00000  0.00000  0.00000  0.00000
O1_8                0.00000  0.00000  0.00000  0.00000
O1_9                0.00000  0.00000  0.00000  0.00000
O1_10               0.00000  0.00000  0.00000  0.00000
O1_11               0.00000  0.00000  0.00000  0.00000
O1_12               0.00000  0.00000  0.00000  0.00000
O1_13               0.00000  0.00000  0.00000  0.00000
O1_14               0.00000  0.00000  0.00000  0.00000
O1_15               0.00000  0.00000  0.00000  0.00000
O1_16               0.00000  0.00000  0.00000  0.00000

